6
energy = -959.993397525085 rx stre(1,6) = 1.1600 ANG (initial) DF-RKS PBE+D3(BJ) def2-TZVP jxfit=univ-jfit grid=m5 charge=-1 
C        0.4824292945    -0.0000155543    -0.0001347007
Cl       2.3427979230    -0.0000004783     0.0000455511
H        0.1408201335    -0.2615704157     1.0017447198
H        0.1408584784    -0.7368766654    -0.7276483707
H        0.1409895987     0.9985145030    -0.2745682057
Cl      -2.5379299217     0.0000020021     0.0000297466
6
energy = -959.992797961934 rx stre(1,6) = 0.9600 ANG DF-RKS PBE+D3(BJ) def2-TZVP jxfit=univ-jfit grid=m5 charge=-1 
C        0.4016016546    -0.0000549559     0.0007131761
Cl       2.3059134064     0.0000240930    -0.0002186975
H        0.0851022416    -0.8330593718    -0.6242011250
H        0.0850406577     0.9577368943    -0.4080285499
H        0.0856323513    -0.1249139286     1.0347526594
Cl      -2.4627007699     0.0000092094    -0.0001814226
6
energy = -959.990997611282 rx stre(1,6) = 0.7600 ANG DF-RKS PBE+D3(BJ) def2-TZVP jxfit=univ-jfit grid=m5 charge=-1 
C        0.3197412970    -0.0001323437     0.0021939372
Cl       2.2886039732     0.0000476501    -0.0006553988
H        0.0431507784    -0.8402259360    -0.6280682584
H        0.0430509083     0.9657496290    -0.4100468866
H        0.0439983980    -0.1260758913     1.0450531664
Cl      -2.4091126713     0.0000315417    -0.0005270508
6
energy = -959.988429355805 rx stre(1,6) = 0.5600 ANG DF-RKS PBE+D3(BJ) def2-TZVP jxfit=univ-jfit grid=m5 charge=-1 
C        0.2367810935     0.0000981657     0.0000559708
Cl       2.2905971100    -0.0000174244    -0.0000495383
H        0.0161141095    -0.8482759398    -0.6364905216
H        0.0163118341     0.9756095023    -0.4163421948
H        0.0161702746    -0.1270617528     1.0530830195
Cl      -2.3770255088    -0.0000332111     0.0000150602
6
energy = -959.985874530733 rx stre(1,6) = 0.3600 ANG DF-RKS PBE+D3(BJ) def2-TZVP jxfit=univ-jfit grid=m5 charge=-1 
C        0.1528228423     0.0000243187    -0.0008104578
Cl       2.3054384660     0.0000019123     0.0001717073
H        0.0024336079    -0.8563152422    -0.6433242041
H        0.0023271398     0.9846621783    -0.4210962095
H        0.0021654425    -0.1283206335     1.0620226069
Cl      -2.3597833627    -0.0000120426     0.0002553841
6
energy = -959.984107291007 rx stre(1,6) = 0.1600 ANG DF-RKS PBE+D3(BJ) def2-TZVP jxfit=univ-jfit grid=m5 charge=-1 
C        0.0681004019     0.0000609630    -0.0006491744
Cl       2.3215637609    -0.0000088332     0.0001256726
H       -0.0013454902    -0.8616351764    -0.6471801185
H       -0.0013561413     0.9908752311    -0.4235440372
H       -0.0014748706    -0.1290714861     1.0689050157
Cl      -2.3453535203    -0.0000225990     0.0002104560
6
energy = -959.983659746148 rx stre(1,6) = -0.0400 ANG DF-RKS PBE+D3(BJ) def2-TZVP jxfit=univ-jfit grid=m5 charge=-1 
C       -0.0170544692     0.0003951181     0.0014789399
Cl       2.3376970672    -0.0000948649    -0.0004159418
H        0.0006851959    -0.8626091949    -0.6461857262
H        0.0007032731     0.9926990379    -0.4222280380
H        0.0006307402    -0.1289715018     1.0726647816
Cl      -2.3317966198    -0.0001103734    -0.0003560969
6
energy = -959.984681306517 rx stre(1,6) = -0.2400 ANG DF-RKS PBE+D3(BJ) def2-TZVP jxfit=univ-jfit grid=m5 charge=-1 
C       -0.1020756647    -0.0000325255     0.0003108709
Cl       2.3527362097     0.0000101718    -0.0001149770
H        0.0009381332    -0.8601285782    -0.6451228333
H        0.0009383032     0.9889591256    -0.4218630541
H        0.0009902071    -0.1288896891     1.0678802623
Cl      -2.3168781306     0.0000047867    -0.0000473524
6
energy = -959.986842613758 rx stre(1,6) = -0.4400 ANG DF-RKS PBE+D3(BJ) def2-TZVP jxfit=univ-jfit grid=m5 charge=-1 
C       -0.1864997087     0.0001376461     0.0006904780
Cl       2.3672397786    -0.0000348102    -0.0002225422
H       -0.0067060220    -0.8531962748    -0.6396531551
H       -0.0067312080     0.9813524758    -0.4181683044
H       -0.0067345372    -0.1277240018     1.0598671772
Cl      -2.3002297775    -0.0000391943    -0.0001414923
6
energy = -959.989502728370 rx stre(1,6) = -0.6400 ANG DF-RKS PBE+D3(BJ) def2-TZVP jxfit=univ-jfit grid=m5 charge=-1 
C       -0.2701351740     0.0001901678    -0.0012508736
Cl       2.3859895399    -0.0000463032     0.0002487419
H       -0.0251489879    -0.8446298466    -0.6352327717
H       -0.0250781277     0.9715919628    -0.4159513753
H       -0.0245307116    -0.1263926268     1.0472503199
Cl      -2.2862501945    -0.0000543143     0.0004241445
6
energy = -959.991846602093 rx stre(1,6) = -0.8400 ANG DF-RKS PBE+D3(BJ) def2-TZVP jxfit=univ-jfit grid=m5 charge=-1 
C       -0.3526181004     0.0002404001     0.0001919685
Cl       2.4279982148    -0.0000643130    -0.0000962791
H       -0.0583963077    -0.8366875251    -0.6278490717
H       -0.0586958566     0.9626234714    -0.4106343576
H       -0.0583439387    -0.1251592279     1.0389856708
Cl      -2.2932249969    -0.0000662234    -0.0000010181
6
energy = -959.993184791356 rx stre(1,6) = -1.0400 ANG DF-RKS PBE+D3(BJ) def2-TZVP jxfit=univ-jfit grid=m5 charge=-1 
C       -0.4340496410    -0.0003459118    -0.0001547065
Cl       2.4904466629     0.0000805739    -0.0000082433
H       -0.1063435974    -0.8312270548    -0.6236086674
H       -0.1058736522     0.9548197749    -0.4079562775
H       -0.1059578617    -0.1249125739     1.0309789237
Cl      -2.3185364889     0.0001191511     0.0000973174
6
energy = -959.993310188041 rx stre(1,6) = -1.2400 ANG DF-RKS PBE+D3(BJ) def2-TZVP jxfit=univ-jfit grid=m5 charge=-1 
C       -0.5145083558    -0.0003046842    -0.0000198928
Cl       2.5729642259     0.0000752993    -0.0000423097
H       -0.1669686141    -0.8275936666    -0.6207191651
H       -0.1663079230     0.9506251722    -0.4059816718
H       -0.1665497266    -0.1243463287     1.0266080479
Cl      -2.3619714966     0.0001095789     0.0000547889
6
energy = -959.992451048793 rx stre(1,6) = -1.4400 ANG DF-RKS PBE+D3(BJ) def2-TZVP jxfit=univ-jfit grid=m5 charge=-1 
C       -0.5943101773    -0.0037976781    -0.0000915055
Cl       2.6713622092     0.0009169093    -0.0000264144
H       -0.2388084150    -0.8300962236    -0.6193823305
H       -0.2328451125     0.9438083198    -0.4049885112
H       -0.2361621372    -0.1284060782     1.0240666418
Cl      -2.4199694604     0.0012877996     0.0000766046
