34
Energy = -475.9004357403
Re   -8.3509379  -10.2481428   -0.0448264 
C    -7.0036159   -8.5618349   -0.5303808 
C    -8.5170809  -10.5175721   -2.2341264 
Re  -10.2403070   -9.3561870    0.6073203 
C    -8.6295653  -12.4393249    0.0729653 
C   -10.0690375   -9.0732612    2.7942769 
C   -11.4808257   -9.1312857   -1.2103941 
C   -11.5836200  -11.0417098    1.1047808 
C    -9.9684987   -7.1646941    0.4795382 
C    -7.1162664  -10.4810851    1.7760669 
H    -9.3267415   -8.2952828    3.0840697 
H   -11.0644557   -8.7452968    3.1829262 
H    -9.7983387  -10.0109438    3.3294444 
H    -9.0720649   -6.8093522    1.0354043 
H   -10.8608630   -6.6773091    0.9437448 
H    -9.8886265   -6.7863723   -0.5647928 
H   -11.2736409  -11.6038199    2.0148320 
H   -12.6038841  -10.6285438    1.2992569 
H   -11.6775847  -11.7750671    0.2727741 
H    -7.6519032  -12.9279316   -0.1614840 
H    -9.3772854  -12.8274827   -0.6551815 
H    -8.9368965  -12.7841195    1.0856675 
H   -10.9554468   -8.5805746   -2.0226268 
H   -11.8327996  -10.0992414   -1.6342408 
H   -12.3877673   -8.5363049   -0.9403532 
H    -6.7330930   -7.9457621    0.3568147 
H    -7.4258184   -7.8758845   -1.2985910 
H    -6.0547393   -8.9816831   -0.9458795 
H    -7.5956593  -11.0387342   -2.5932087 
H    -8.5917233   -9.5560712   -2.7908608 
H    -9.3878712  -11.1444124   -2.5305356 
H    -7.5260011  -11.2277519    2.4935023 
H    -6.1028609  -10.8376448    1.4674893 
H    -6.9755646   -9.5259848    2.3302031 
