4
 * DF-MP2/AUG-CC-PVTZ,S=AVTZ+D Energy:   -623.082249290782
S          0.000000      -0.000000       0.000000
O          1.433468      -0.045278       0.000000
O         -0.755946      -1.218781       0.000000
O         -0.677522       1.264059       0.000000